 Gaussian 09, Revision D.01,
 Gaussian 09:  EM64L-G09RevD.01 24-Apr-2013

 --------------------------------------------------------
 # opt freq b3lyp/6-311++g(d,p) scrf=(pcm, solvent=water)
 --------------------------------------------------------

 ----------------
 Title LB04-neutr
 ----------------
 Symbolic Z-matrix:
 Charge =  0 Multiplicity = 1

 SCF Done:  E(RB3LYP) =  -648.875821794     A.U. after   15 cycles
 SCF Done:  E(RB3LYP) =  -648.882794356     A.U. after   12 cycles
 SCF Done:  E(RB3LYP) =  -648.883587326     A.U. after   11 cycles
 SCF Done:  E(RB3LYP) =  -648.883619186     A.U. after   11 cycles
 SCF Done:  E(RB3LYP) =  -648.883623230     A.U. after   10 cycles
 Optimization completed.
    -- Stationary point found.

 1\1\GINC-AVH-5\FOpt\RB3LYP\6-311++G(d,p)\C9H8O4\JOANNA\23-Aug-2018\0\\
 # opt freq b3lyp/6-311++g(d,p) scrf=(pcm, solvent=water)\\Title LB04-n
 eutr\\0,1\C,-0.1532720517,1.9571999425,-1.3146480768\C,-1.0356129081,2
 .3355484737,-0.3097363064\C,-0.8569136843,1.8564488622,1.0033651215\C,
 0.1973609395,1.0091900249,1.2917959421\C,1.1002304567,0.6165853234,0.2
 840538382\C,0.9060882901,1.104200582,-1.018595339\C,2.227227802,-0.272
 9850251,0.5315926322\C,2.5806039026,-0.8419509905,1.7021429693\C,3.733
 5643949,-1.7272289198,1.861984826\O,4.0551171459,-2.2431054173,2.92014

 Normal termination of Gaussian 09 at Thu Aug 23 00:42:52 2018.

 ----------------------------------------------------------------------
 #N Geom=AllCheck Guess=TCheck SCRF=Check GenChk RB3LYP/6-311++G(d,p) F
 req
 ----------------------------------------------------------------------

 Structure from the checkpoint file:  "LB04-IV.chk"
 ----------------
 Title LB04-neutr
 ----------------
 Charge =  0 Multiplicity = 1

                         Standard orientation:
 ---------------------------------------------------------------------
 Center     Atomic      Atomic             Coordinates (Angstroms)
 Number     Number       Type             X           Y           Z
 ---------------------------------------------------------------------
      1          6           0       -1.883445    1.981497    0.000000
      2          6           0       -2.765893    0.907809    0.000000
      3          6           0       -2.271557   -0.411788    0.000000
      4          6           0       -0.907256   -0.638096    0.000000
      5          6           0        0.000000    0.439746    0.000000
      6          6           0       -0.511265    1.747783    0.000000
      7          6           0        1.445760    0.259434    0.000000
      8          6           0        2.126529   -0.904757    0.000000
      9          6           0        3.586158   -0.994565    0.000000
     10          8           0        4.204169   -2.046844    0.000000
     11          8           0        4.225469    0.201305    0.000000
     12          1           0       -0.563122   -1.664973    0.000000
     13          1           0        2.022271    1.179549    0.000000
     14          1           0        1.630972   -1.867599    0.000000
     15          1           0        5.178564    0.025612    0.000000
     16          1           0        0.171148    2.589687    0.000000
     17          1           0       -2.269178    2.994839    0.000000
     18          8           0       -4.125748    1.017047    0.000000
     19          1           0       -4.403604    1.941145    0.000000
     20          8           0       -3.133853   -1.469695    0.000000
     21          1           0       -4.041531   -1.135138    0.000000
 ---------------------------------------------------------------------

 SCF Done:  E(RB3LYP) =  -648.883623230     A.U. after    1 cycles

 The electronic state is 1-A'.
 Alpha  occ. eigenvalues --  -19.18084 -19.17647 -19.16789 -19.12244 -10.31670
 Alpha  occ. eigenvalues --  -10.25850 -10.25225 -10.20884 -10.20089 -10.19264
 Alpha  occ. eigenvalues --  -10.19162 -10.19066 -10.19060  -1.11763  -1.09973
 Alpha  occ. eigenvalues --   -1.07039  -1.02671  -0.87953  -0.82044  -0.76779
 Alpha  occ. eigenvalues --   -0.76041  -0.68542  -0.64805  -0.62797  -0.60270
 Alpha  occ. eigenvalues --   -0.57458  -0.54988  -0.51970  -0.50131  -0.48987
 Alpha  occ. eigenvalues --   -0.47950  -0.46132  -0.45423  -0.45177  -0.43873
 Alpha  occ. eigenvalues --   -0.42062  -0.40710  -0.39603  -0.39360  -0.38218
 Alpha  occ. eigenvalues --   -0.37121  -0.36611  -0.33769  -0.30511  -0.29683
 Alpha  occ. eigenvalues --   -0.25769  -0.23063
 Alpha virt. eigenvalues --   -0.08271  -0.02348  -0.01266  -0.00495   0.00620
 Alpha virt. eigenvalues --    0.00687   0.01463   0.02242   0.04088   0.04648
 Alpha virt. eigenvalues --    0.04872   0.05093   0.05335   0.06739   0.06913

 Mulliken charges:
               1
     1  C    0.067235
     2  C   -0.138802
     3  C   -0.650496
     4  C   -1.102194
     5  C    1.334057
     6  C   -0.115122
     7  C   -0.105980
     8  C   -0.229892
     9  C    0.188678
    10  O   -0.376857
    11  O   -0.232169
    12  H    0.165381
    13  H    0.224610
    14  H    0.220854
    15  H    0.319788
    16  H    0.187323
    17  H    0.198995
    18  O   -0.311170
    19  H    0.321067
    20  O   -0.276882
    21  H    0.311577
 Sum of Mulliken charges =   0.00000

 Dipole moment (field-independent basis, Debye):
    X=             -5.0646    Y=              6.5581    Z=              0.0000  Tot=              8.2860
 Quadrupole moment (field-independent basis, Debye-Ang):
   XX=            -65.6453   YY=            -74.3035   ZZ=            -79.1066
   XY=              1.2618   XZ=              0.0000   YZ=              0.0000

  Exact polarizability: 298.758 -51.825 192.899  -0.003   0.001  87.088
 Approx polarizability: 322.248 -57.376 235.007   0.000   0.000  98.214

                      1                      2                      3
                     A"                     A"                     A'
 Frequencies --     35.6483                64.7097                89.8674
 Red. masses --      7.0958                 6.8445                 6.9396
 Frc consts  --      0.0053                 0.0169                 0.0330
 IR Inten    --      0.4375                 0.8704                 0.4526

                      4                      5                      6
                     A"                     A"                     A'
 Frequencies --    117.8591               186.2519               210.2408
 Red. masses --      3.6040                 4.5144                 7.6699
 Frc consts  --      0.0295                 0.0923                 0.1997
 IR Inten    --      1.3398                 2.1370                 2.5397

                      7                      8                      9
                     A"                     A"                     A'
 Frequencies --    240.3132               272.7088               305.5669
 Red. masses --      3.1206                 1.1804                 5.7599
 Frc consts  --      0.1062                 0.0517                 0.3169
 IR Inten    --     35.1072               282.2372                 9.0665

                     10                     11                     12
                     A'                     A"                     A"
 Frequencies --    312.4531               383.8064               391.1608
 Red. masses --      6.7014                 1.4373                 2.1746
 Frc consts  --      0.3855                 0.1247                 0.1960
 IR Inten    --      3.3344                29.9567                 4.2263

                     13                     14                     15
                     A"                     A'                     A'
 Frequencies --    448.8882               468.1553               506.7894
 Red. masses --      2.9301                 5.6470                 6.2541
 Frc consts  --      0.3479                 0.7292                 0.9464
 IR Inten    --      0.0231                14.2179                43.6796

                     16                     17                     18
                     A"                     A'                     A'
 Frequencies --    526.0934               568.3332               596.1087
 Red. masses --      1.1054                 6.0423                 4.7876
 Frc consts  --      0.1803                 1.1499                 1.0023
 IR Inten    --    150.9874                87.0381                 6.1198

                     19                     20                     21
                     A"                     A'                     A"
 Frequencies --    607.5111               635.1031               718.9053
 Red. masses --      3.6676                 4.3239                 3.8385
 Frc consts  --      0.7975                 1.0276                 1.1688
 IR Inten    --     19.7614                41.3118                 0.3744

                     22                     23                     24
                     A"                     A'                     A'
 Frequencies --    747.6442               771.5060               811.1454
 Red. masses --      4.4954                 6.0597                 5.3907
 Frc consts  --      1.4805                 2.1251                 2.0897
 IR Inten    --      2.2054                 6.6652                54.8157

                     25                     26                     27
                     A"                     A"                     A"
 Frequencies --    816.1779               877.9069               889.8622
 Red. masses --      1.5588                 1.5728                 1.9001
 Frc consts  --      0.6118                 0.7142                 0.8865
 IR Inten    --     80.0648                56.5124                 1.3000

                     28                     29                     30
                     A'                     A"                     A'
 Frequencies --    919.1894               937.6250               984.3827
 Red. masses --      4.9649                 1.3085                 3.0990
 Frc consts  --      2.4716                 0.6778                 1.7693
 IR Inten    --     39.6478                 5.1899                72.6857

                     31                     32                     33
                     A"                     A'                     A'
 Frequencies --   1010.7021              1121.2938              1155.8776
 Red. masses --      1.1834                 2.0511                 2.1523
 Frc consts  --      0.7123                 1.5194                 1.6943
 IR Inten    --     56.6689               372.3345               862.0970

                     34                     35                     36
                     A'                     A'                     A'
 Frequencies --   1169.4698              1186.8057              1211.8601
 Red. masses --      1.2721                 2.0537                 1.3735
 Frc consts  --      1.0250                 1.7043                 1.1884
 IR Inten    --     29.2844               183.8256                67.2152

                     37                     38                     39
                     A'                     A'                     A'
 Frequencies --   1261.0832              1299.0738              1305.9703
 Red. masses --      1.5187                 3.2302                 1.9699
 Frc consts  --      1.4230                 3.2117                 1.9795
 IR Inten    --     34.5151               637.3522               304.7350

                     40                     41                     42
                     A'                     A'                     A'
 Frequencies --   1331.7483              1348.7192              1358.1886
 Red. masses --      1.5361                 1.6358                 2.2137
 Frc consts  --      1.6052                 1.7532                 2.4060
 IR Inten    --     68.8684                 2.9830               251.7852

                     43                     44                     45
                     A'                     A'                     A'
 Frequencies --   1388.5754              1494.6257              1536.1096
 Red. masses --      3.6007                 3.1678                 3.0162
 Frc consts  --      4.0905                 4.1694                 4.1933
 IR Inten    --      7.3260                84.2518               368.1264

                     46                     47                     48
                     A'                     A'                     A'
 Frequencies --   1621.9119              1639.8212              1662.5901
 Red. masses --      6.1846                 5.4750                 5.7991
 Frc consts  --      9.5855                 8.6742                 9.4445
 IR Inten    --     55.1861               579.6389                57.9224

                     49                     50                     51
                     A'                     A'                     A'
 Frequencies --   1707.4159              3163.6920              3176.2061
 Red. masses --      8.2798                 1.0901                 1.0882
 Frc consts  --     14.2216                 6.4282                 6.4679
 IR Inten    --   1456.0462                 1.6647                13.1404

                     52                     53                     54
                     A'                     A'                     A'
 Frequencies --   3189.6537              3193.4059              3200.1287
 Red. masses --      1.0949                 1.0908                 1.0890
 Frc consts  --      6.5631                 6.5538                 6.5710
 IR Inten    --     11.6708                 0.0261                 9.5349

                     55                     56                     57
                     A'                     A'                     A'
 Frequencies --   3760.6173              3771.6261              3816.1204
 Red. masses --      1.0651                 1.0659                 1.0667
 Frc consts  --      8.8749                 8.9334                 9.1521
 IR Inten    --    186.7391               214.0051               272.6479

 - Thermochemistry -
 -------------------
 Temperature   298.150 Kelvin.  Pressure   1.00000 Atm.
 Atom     1 has atomic number  6 and mass  12.00000

 Molecular mass:   180.04226 amu.
 Principal axes and moments of inertia in atomic units:
                           1         2         3
     Eigenvalues --   792.509005594.844076387.35306
           X            0.98095   0.19426   0.00000
           Y           -0.19426   0.98095   0.00000
           Z            0.00000   0.00000   1.00000
 This molecule is an asymmetric top.
 Rotational symmetry number  1.
 Warning -- assumption of classical behavior for rotation
           may cause significant error
 Rotational temperatures (Kelvin)      0.10929     0.01548     0.01356
 Rotational constants (GHZ):           2.27725     0.32257     0.28255
 Zero-point vibrational energy     409871.7 (Joules/Mol)
                                   97.96170 (Kcal/Mol)
 Warning -- explicit consideration of  19 degrees of freedom as
           vibrations may cause significant error
 Vibrational temperatures:     51.29    93.10   129.30   169.57   267.97
          (Kelvin)            302.49   345.76   392.37   439.64   449.55
                              552.21   562.79   645.85   673.57   729.16
                              756.93   817.70   857.67   874.07   913.77
                             1034.34  1075.69  1110.02  1167.06  1174.30
                             1263.11  1280.31  1322.51  1349.03  1416.31
                             1454.17  1613.29  1663.05  1682.60  1707.55
                             1743.59  1814.42  1869.08  1879.00  1916.09
                             1940.50  1954.13  1997.85  2150.43  2210.12
                             2333.57  2359.33  2392.09  2456.59  4551.84
                             4569.85  4589.19  4594.59  4604.27  5410.68
                             5426.52  5490.54

 Zero-point correction=                           0.156112 (Hartree/Particle)
 Thermal correction to Energy=                    0.168099
 Thermal correction to Enthalpy=                  0.169043
 Thermal correction to Gibbs Free Energy=         0.117182
 Sum of electronic and zero-point Energies=           -648.727511
 Sum of electronic and thermal Energies=              -648.715525
 Sum of electronic and thermal Enthalpies=            -648.714580
 Sum of electronic and thermal Free Energies=         -648.766441

                     E (Thermal)             CV                S
                      KCal/Mol        Cal/Mol-Kelvin    Cal/Mol-Kelvin
 Total                  105.483             45.147            109.151
 Electronic               0.000              0.000              0.000
 Translational            0.889              2.981             41.471
 Rotational               0.889              2.981             31.716
 Vibrational            103.706             39.185             35.964
 Vibration     1          0.594              1.982              5.487
 Vibration     2          0.597              1.971              4.308
 Vibration     3          0.602              1.956              3.663
 Vibration     4          0.608              1.934              3.135
 Vibration     5          0.632              1.859              2.265
 Vibration     6          0.642              1.825              2.042
 Vibration     7          0.657              1.779              1.801
 Vibration     8          0.676              1.724              1.579
 Vibration     9          0.696              1.663              1.386
 Vibration    10          0.701              1.650              1.349
 Vibration    11          0.753              1.505              1.024
 Vibration    12          0.759              1.489              0.996
 Vibration    13          0.808              1.363              0.799
 Vibration    14          0.825              1.321              0.743
 Vibration    15          0.862              1.235              0.641
 Vibration    16          0.881              1.192              0.596
 Vibration    17          0.924              1.100              0.507
 Vibration    18          0.954              1.040              0.456
 Vibration    19          0.966              1.016              0.437

 Optimization completed.
    -- Stationary point found.

 1\1\GINC-AVH-5\Freq\RB3LYP\6-311++G(d,p)\C9H8O4\JOANNA\23-Aug-2018\0\\
 #N Geom=AllCheck Guess=TCheck SCRF=Check GenChk RB3LYP/6-311++G(d,p) F
 req\\Title LB04-neutr\\0,1\C,-0.1532720517,1.9571999425,-1.3146480768\
 C,-1.0356129081,2.3355484737,-0.3097363064\C,-0.8569136843,1.856448862
 2,1.0033651215\C,0.1973609395,1.0091900249,1.2917959421\C,1.1002304567
 ,0.6165853234,0.2840538382\C,0.9060882901,1.104200582,-1.018595339\C,2
 .227227802,-0.2729850251,0.5315926322\C,2.5806039026,-0.8419509905,1.7
 021429693\C,3.7335643949,-1.7272289198,1.861984826\O,4.0551171459,-2.2

 Normal termination of Gaussian 09 at Thu Aug 23 02:08:06 2018.
